+ 2.00769 /NodeList/1/DeviceList/1/$ns3::CsmaNetDevice/TxQueue/Enqueue ns3::EthernetHeader ( length/type=0x806, source=00:00:00:00:00:03, destination=ff:ff:ff:ff:ff:ff) ns3::ArpHeader (request source mac: 00-06-00:00:00:00:00:03 source ipv4: 171.1.2.1 dest ipv4: 171.1.2.4) Payload (size=18) ns3::EthernetTrailer (fcs=0)
- 2.00769 /NodeList/1/DeviceList/1/$ns3::CsmaNetDevice/TxQueue/Dequeue ns3::EthernetHeader ( length/type=0x806, source=00:00:00:00:00:03, destination=ff:ff:ff:ff:ff:ff) ns3::ArpHeader (request source mac: 00-06-00:00:00:00:00:03 source ipv4: 171.1.2.1 dest ipv4: 171.1.2.4) Payload (size=18) ns3::EthernetTrailer (fcs=0)
r 2.0077 /NodeList/2/DeviceList/0/$ns3::CsmaNetDevice/MacRx ns3::EthernetHeader ( length/type=0x806, source=00:00:00:00:00:03, destination=ff:ff:ff:ff:ff:ff) ns3::ArpHeader (request source mac: 00-06-00:00:00:00:00:03 source ipv4: 171.1.2.1 dest ipv4: 171.1.2.4) Payload (size=18) ns3::EthernetTrailer (fcs=0)
r 2.0077 /NodeList/3/DeviceList/0/$ns3::CsmaNetDevice/MacRx ns3::EthernetHeader ( length/type=0x806, source=00:00:00:00:00:03, destination=ff:ff:ff:ff:ff:ff) ns3::ArpHeader (request source mac: 00-06-00:00:00:00:00:03 source ipv4: 171.1.2.1 dest ipv4: 171.1.2.4) Payload (size=18) ns3::EthernetTrailer (fcs=0)
r 2.0077 /NodeList/4/DeviceList/0/$ns3::CsmaNetDevice/MacRx ns3::EthernetHeader ( length/type=0x806, source=00:00:00:00:00:03, destination=ff:ff:ff:ff:ff:ff) ns3::ArpHeader (request source mac: 00-06-00:00:00:00:00:03 source ipv4: 171.1.2.1 dest ipv4: 171.1.2.4) Payload (size=18) ns3::EthernetTrailer (fcs=0)
+ 2.0077 /NodeList/4/DeviceList/0/$ns3::CsmaNetDevice/TxQueue/Enqueue ns3::EthernetHeader ( length/type=0x806, source=00:00:00:00:00:06, destination=00:00:00:00:00:03) ns3::ArpHeader (reply source mac: 00-06-00:00:00:00:00:06 source ipv4: 171.1.2.4 dest mac: 00-06-00:00:00:00:00:03 dest ipv4: 171.1.2.1) Payload (size=18) ns3::EthernetTrailer (fcs=0)
- 2.0077 /NodeList/4/DeviceList/0/$ns3::CsmaNetDevice/TxQueue/Dequeue ns3::EthernetHeader ( length/type=0x806, source=00:00:00:00:00:06, destination=00:00:00:00:00:03) ns3::ArpHeader (reply source mac: 00-06-00:00:00:00:00:06 source ipv4: 171.1.2.4 dest mac: 00-06-00:00:00:00:00:03 dest ipv4: 171.1.2.1) Payload (size=18) ns3::EthernetTrailer (fcs=0)
r 2.00771 /NodeList/1/DeviceList/1/$ns3::CsmaNetDevice/MacRx ns3::EthernetHeader ( length/type=0x806, source=00:00:00:00:00:06, destination=00:00:00:00:00:03) ns3::ArpHeader (reply source mac: 00-06-00:00:00:00:00:06 source ipv4: 171.1.2.4 dest mac: 00-06-00:00:00:00:00:03 dest ipv4: 171.1.2.1) Payload (size=18) ns3::EthernetTrailer (fcs=0)
+ 2.00771 /NodeList/1/DeviceList/1/$ns3::CsmaNetDevice/TxQueue/Enqueue ns3::EthernetHeader ( length/type=0x800, source=00:00:00:00:00:03, destination=00:00:00:00:00:06) ns3::Ipv4Header (tos 0x0 DSCP Default ECN Not-ECT ttl 63 id 0 protocol 17 offset (bytes) 0 flags [none] length: 1052 171.1.1.1 > 171.1.2.4) ns3::UdpHeader (length: 1032 49153 > 47) Payload (size=1024) ns3::EthernetTrailer (fcs=0)
- 2.00771 /NodeList/1/DeviceList/1/$ns3::CsmaNetDevice/TxQueue/Dequeue ns3::EthernetHeader ( length/type=0x800, source=00:00:00:00:00:03, destination=00:00:00:00:00:06) ns3::Ipv4Header (tos 0x0 DSCP Default ECN Not-ECT ttl 63 id 0 protocol 17 offset (bytes) 0 flags [none] length: 1052 171.1.1.1 > 171.1.2.4) ns3::UdpHeader (length: 1032 49153 > 47) Payload (size=1024) ns3::EthernetTrailer (fcs=0)
r 2.0078 /NodeList/4/DeviceList/0/$ns3::CsmaNetDevice/MacRx ns3::EthernetHeader ( length/type=0x800, source=00:00:00:00:00:03, destination=00:00:00:00:00:06) ns3::Ipv4Header (tos 0x0 DSCP Default ECN Not-ECT ttl 63 id 0 protocol 17 offset (bytes) 0 flags [none] length: 1052 171.1.1.1 > 171.1.2.4) ns3::UdpHeader (length: 1032 49153 > 47) Payload (size=1024) ns3::EthernetTrailer (fcs=0)
+ 2.0138 /NodeList/4/DeviceList/0/$ns3::CsmaNetDevice/TxQueue/Enqueue ns3::EthernetHeader ( length/type=0x806, source=00:00:00:00:00:06, destination=ff:ff:ff:ff:ff:ff) ns3::ArpHeader (request source mac: 00-06-00:00:00:00:00:06 source ipv4: 171.1.2.4 dest ipv4: 171.1.2.1) Payload (size=18) ns3::EthernetTrailer (fcs=0)
- 2.0138 /NodeList/4/DeviceList/0/$ns3::CsmaNetDevice/TxQueue/Dequeue ns3::EthernetHeader ( length/type=0x806, source=00:00:00:00:00:06, destination=ff:ff:ff:ff:ff:ff) ns3::ArpHeader (request source mac: 00-06-00:00:00:00:00:06 source ipv4: 171.1.2.4 dest ipv4: 171.1.2.1) Payload (size=18) ns3::EthernetTrailer (fcs=0)
r 2.01382 /NodeList/1/DeviceList/1/$ns3::CsmaNetDevice/MacRx ns3::EthernetHeader ( length/type=0x806, source=00:00:00:00:00:06, destination=ff:ff:ff:ff:ff:ff) ns3::ArpHeader (request source mac: 00-06-00:00:00:00:00:06 source ipv4: 171.1.2.4 dest ipv4: 171.1.2.1) Payload (size=18) ns3::EthernetTrailer (fcs=0)
+ 2.01382 /NodeList/1/DeviceList/1/$ns3::CsmaNetDevice/TxQueue/Enqueue ns3::EthernetHeader ( length/type=0x806, source=00:00:00:00:00:03, destination=00:00:00:00:00:06) ns3::ArpHeader (reply source mac: 00-06-00:00:00:00:00:03 source ipv4: 171.1.2.1 dest mac: 00-06-00:00:00:00:00:06 dest ipv4: 171.1.2.4) Payload (size=18) ns3::EthernetTrailer (fcs=0)
- 2.01382 /NodeList/1/DeviceList/1/$ns3::CsmaNetDevice/TxQueue/Dequeue ns3::EthernetHeader ( length/type=0x806, source=00:00:00:00:00:03, destination=00:00:00:00:00:06) ns3::ArpHeader (reply source mac: 00-06-00:00:00:00:00:03 source ipv4: 171.1.2.1 dest mac: 00-06-00:00:00:00:00:06 dest ipv4: 171.1.2.4) Payload (size=18) ns3::EthernetTrailer (fcs=0)
r 2.01382 /NodeList/2/DeviceList/0/$ns3::CsmaNetDevice/MacRx ns3::EthernetHeader ( length/type=0x806, source=00:00:00:00:00:06, destination=ff:ff:ff:ff:ff:ff) ns3::ArpHeader (request source mac: 00-06-00:00:00:00:00:06 source ipv4: 171.1.2.4 dest ipv4: 171.1.2.1) Payload (size=18) ns3::EthernetTrailer (fcs=0)
r 2.01382 /NodeList/3/DeviceList/0/$ns3::CsmaNetDevice/MacRx ns3::EthernetHeader ( length/type=0x806, source=00:00:00:00:00:06, destination=ff:ff:ff:ff:ff:ff) ns3::ArpHeader (request source mac: 00-06-00:00:00:00:00:06 source ipv4: 171.1.2.4 dest ipv4: 171.1.2.1) Payload (size=18) ns3::EthernetTrailer (fcs=0)
r 2.01383 /NodeList/4/DeviceList/0/$ns3::CsmaNetDevice/MacRx ns3::EthernetHeader ( length/type=0x806, source=00:00:00:00:00:03, destination=00:00:00:00:00:06) ns3::ArpHeader (reply source mac: 00-06-00:00:00:00:00:03 source ipv4: 171.1.2.1 dest mac: 00-06-00:00:00:00:00:06 dest ipv4: 171.1.2.4) Payload (size=18) ns3::EthernetTrailer (fcs=0)
+ 2.01383 /NodeList/4/DeviceList/0/$ns3::CsmaNetDevice/TxQueue/Enqueue ns3::EthernetHeader ( length/type=0x800, source=00:00:00:00:00:06, destination=00:00:00:00:00:03) ns3::Ipv4Header (tos 0x0 DSCP Default ECN Not-ECT ttl 64 id 0 protocol 17 offset (bytes) 0 flags [none] length: 1052 171.1.2.4 > 171.1.1.1) ns3::UdpHeader (length: 1032 47 > 49153) Payload (size=1024) ns3::EthernetTrailer (fcs=0)
- 2.01383 /NodeList/4/DeviceList/0/$ns3::CsmaNetDevice/TxQueue/Dequeue ns3::EthernetHeader ( length/type=0x800, source=00:00:00:00:00:06, destination=00:00:00:00:00:03) ns3::Ipv4Header (tos 0x0 DSCP Default ECN Not-ECT ttl 64 id 0 protocol 17 offset (bytes) 0 flags [none] length: 1052 171.1.2.4 > 171.1.1.1) ns3::UdpHeader (length: 1032 47 > 49153) Payload (size=1024) ns3::EthernetTrailer (fcs=0)
r 2.01392 /NodeList/1/DeviceList/1/$ns3::CsmaNetDevice/MacRx ns3::EthernetHeader ( length/type=0x800, source=00:00:00:00:00:06, destination=00:00:00:00:00:03) ns3::Ipv4Header (tos 0x0 DSCP Default ECN Not-ECT ttl 64 id 0 protocol 17 offset (bytes) 0 flags [none] length: 1052 171.1.2.4 > 171.1.1.1) ns3::UdpHeader (length: 1032 47 > 49153) Payload (size=1024) ns3::EthernetTrailer (fcs=0)
