t 0.03209 /NodeList/0/DeviceList/1/$ns3::WifiNetDevice/Phy/State/Tx OfdmRate6Mbps ns3::WifiMacHeader (MGT_BEACON ToDS=0, FromDS=0, MoreFrag=0, Retry=0, MoreData=0 Duration/ID=0us, DA=ff:ff:ff:ff:ff:ff, SA=00:00:00:00:00:0a, BSSID=00:00:00:00:00:0a, FragNumber=0, SeqNumber=0) ns3::MgtProbeResponseHeader (ssid=ns-3-ssid, rates=[*6mbs 9mbs *12mbs 18mbs *24mbs 36mbs 48mbs 54mbs], ERP information=0|0|0, Extended Capabilities=0 , HT Capabilities=0|0|0|0|0 0 0 0 0 0 0 0 0 0 0 0 0 0 0 0 0 0 0 0 0 0 0 0 0 0 0 0 0 0 0 0 0 0 0 0 0 0 0 0 0 0 0 0 0 0 0 0 0 0 0 0 0 0 0 0 0 0 0 0 0 0 0 0 0 0 0 0 0 0 0 0 0 0 0 0 0  , HT Operation=0|0|0|0|0|0|0|0|0|0|0|0|0|0|0|0|0|0|0 0 0 0 0 0 0 0 0 0 0 0 0 0 0 0 0 0 0 0 0 0 0 0 0 0 0 0 0 0 0 0 0 0 0 0 0 0 0 0 0 0 0 0 0 0 0 0 0 0 0 0 0 0 0 0 0 0 0 0 0 0 0 0 0 0 0 0 0 0 0 0 0 0 0 0 0  , VHT Capabilities=0|281470681808895 , VHT Operation=0|0|0|0 , HE Capabilities=0|0|0|0|0 , HE Operation=0|0) ns3::WifiMacTrailer ()
r 0.120391 OfdmRate6Mbps/NodeList/0/DeviceList/1/$ns3::WifiNetDevice/Phy/State/RxOk ns3::WifiMacHeader (MGT_ASSOCIATION_REQUEST ToDS=0, FromDS=0, MoreFrag=0, Retry=1, MoreData=0 Duration/ID=60us, DA=00:00:00:00:00:0a, SA=00:00:00:00:00:08, BSSID=00:00:00:00:00:0a, FragNumber=0, SeqNumber=0) ns3::MgtAssocRequestHeader (ssid=ns-3-ssid, rates=[6mbs 9mbs 12mbs 18mbs 24mbs 36mbs 48mbs 54mbs], Extended Capabilities=0 , HT Capabilities=0|0|0|0|0 0 0 0 0 0 0 0 0 0 0 0 0 0 0 0 0 0 0 0 0 0 0 0 0 0 0 0 0 0 0 0 0 0 0 0 0 0 0 0 0 0 0 0 0 0 0 0 0 0 0 0 0 0 0 0 0 0 0 0 0 0 0 0 0 0 0 0 0 0 0 0 0 0 0 0 0  , VHT Capabilities=0|281470681808895 , HE Capabilities=0|0|0|0|0) ns3::WifiMacTrailer ()
t 0.120407 /NodeList/0/DeviceList/1/$ns3::WifiNetDevice/Phy/State/Tx OfdmRate6Mbps ns3::WifiMacHeader (CTL_ACK Duration/ID=0us, RA=00:00:00:00:00:08) ns3::WifiMacTrailer ()
t 0.120539 /NodeList/0/DeviceList/1/$ns3::WifiNetDevice/Phy/State/Tx OfdmRate6Mbps ns3::WifiMacHeader (MGT_ASSOCIATION_RESPONSE ToDS=0, FromDS=0, MoreFrag=0, Retry=0, MoreData=0 Duration/ID=60us, DA=00:00:00:00:00:08, SA=00:00:00:00:00:0a, BSSID=00:00:00:00:00:0a, FragNumber=0, SeqNumber=1) ns3::MgtAssocResponseHeader (status code=success, aid=1, rates=[*6mbs 9mbs *12mbs 18mbs *24mbs 36mbs 48mbs 54mbs], ERP information=0|0|0, Extended Capabilities=0 , HT Capabilities=0|0|0|0|0 0 0 0 0 0 0 0 0 0 0 0 0 0 0 0 0 0 0 0 0 0 0 0 0 0 0 0 0 0 0 0 0 0 0 0 0 0 0 0 0 0 0 0 0 0 0 0 0 0 0 0 0 0 0 0 0 0 0 0 0 0 0 0 0 0 0 0 0 0 0 0 0 0 0 0 0  , HT Operation=0|0|0|0|0|0|0|0|0|0|0|0|0|0|0|0|0|0|0 0 0 0 0 0 0 0 0 0 0 0 0 0 0 0 0 0 0 0 0 0 0 0 0 0 0 0 0 0 0 0 0 0 0 0 0 0 0 0 0 0 0 0 0 0 0 0 0 0 0 0 0 0 0 0 0 0 0 0 0 0 0 0 0 0 0 0 0 0 0 0 0 0 0 0 0  , VHT Capabilities=0|281470681808895 , VHT Operation=0|0|0|0 , HE Capabilities=0|0|0|0|0 , HE Operation=0|0) ns3::WifiMacTrailer ()
r 0.120683 OfdmRate6Mbps/NodeList/0/DeviceList/1/$ns3::WifiNetDevice/Phy/State/RxOk ns3::WifiMacHeader (CTL_ACK Duration/ID=0us, RA=00:00:00:00:00:0a) ns3::WifiMacTrailer ()
r 0.120858 OfdmRate6Mbps/NodeList/0/DeviceList/1/$ns3::WifiNetDevice/Phy/State/RxOk ns3::WifiMacHeader (MGT_ASSOCIATION_REQUEST ToDS=0, FromDS=0, MoreFrag=0, Retry=1, MoreData=0 Duration/ID=60us, DA=00:00:00:00:00:0a, SA=00:00:00:00:00:07, BSSID=00:00:00:00:00:0a, FragNumber=0, SeqNumber=0) ns3::MgtAssocRequestHeader (ssid=ns-3-ssid, rates=[6mbs 9mbs 12mbs 18mbs 24mbs 36mbs 48mbs 54mbs], Extended Capabilities=0 , HT Capabilities=0|0|0|0|0 0 0 0 0 0 0 0 0 0 0 0 0 0 0 0 0 0 0 0 0 0 0 0 0 0 0 0 0 0 0 0 0 0 0 0 0 0 0 0 0 0 0 0 0 0 0 0 0 0 0 0 0 0 0 0 0 0 0 0 0 0 0 0 0 0 0 0 0 0 0 0 0 0 0 0 0  , VHT Capabilities=0|281470681808895 , HE Capabilities=0|0|0|0|0) ns3::WifiMacTrailer ()
t 0.120874 /NodeList/0/DeviceList/1/$ns3::WifiNetDevice/Phy/State/Tx OfdmRate6Mbps ns3::WifiMacHeader (CTL_ACK Duration/ID=0us, RA=00:00:00:00:00:07) ns3::WifiMacTrailer ()
t 0.120988 /NodeList/0/DeviceList/1/$ns3::WifiNetDevice/Phy/State/Tx OfdmRate6Mbps ns3::WifiMacHeader (MGT_ASSOCIATION_RESPONSE ToDS=0, FromDS=0, MoreFrag=0, Retry=0, MoreData=0 Duration/ID=60us, DA=00:00:00:00:00:07, SA=00:00:00:00:00:0a, BSSID=00:00:00:00:00:0a, FragNumber=0, SeqNumber=2) ns3::MgtAssocResponseHeader (status code=success, aid=2, rates=[*6mbs 9mbs *12mbs 18mbs *24mbs 36mbs 48mbs 54mbs], ERP information=0|0|0, Extended Capabilities=0 , HT Capabilities=0|0|0|0|0 0 0 0 0 0 0 0 0 0 0 0 0 0 0 0 0 0 0 0 0 0 0 0 0 0 0 0 0 0 0 0 0 0 0 0 0 0 0 0 0 0 0 0 0 0 0 0 0 0 0 0 0 0 0 0 0 0 0 0 0 0 0 0 0 0 0 0 0 0 0 0 0 0 0 0 0  , HT Operation=0|0|0|0|0|0|0|0|0|0|0|0|0|0|0|0|0|0|0 0 0 0 0 0 0 0 0 0 0 0 0 0 0 0 0 0 0 0 0 0 0 0 0 0 0 0 0 0 0 0 0 0 0 0 0 0 0 0 0 0 0 0 0 0 0 0 0 0 0 0 0 0 0 0 0 0 0 0 0 0 0 0 0 0 0 0 0 0 0 0 0 0 0 0 0  , VHT Capabilities=0|281470681808895 , VHT Operation=0|0|0|0 , HE Capabilities=0|0|0|0|0 , HE Operation=0|0) ns3::WifiMacTrailer ()
r 0.121132 OfdmRate6Mbps/NodeList/0/DeviceList/1/$ns3::WifiNetDevice/Phy/State/RxOk ns3::WifiMacHeader (CTL_ACK Duration/ID=0us, RA=00:00:00:00:00:0a) ns3::WifiMacTrailer ()
r 0.121316 OfdmRate6Mbps/NodeList/0/DeviceList/1/$ns3::WifiNetDevice/Phy/State/RxOk ns3::WifiMacHeader (MGT_ASSOCIATION_REQUEST ToDS=0, FromDS=0, MoreFrag=0, Retry=1, MoreData=0 Duration/ID=60us, DA=00:00:00:00:00:0a, SA=00:00:00:00:00:09, BSSID=00:00:00:00:00:0a, FragNumber=0, SeqNumber=0) ns3::MgtAssocRequestHeader (ssid=ns-3-ssid, rates=[6mbs 9mbs 12mbs 18mbs 24mbs 36mbs 48mbs 54mbs], Extended Capabilities=0 , HT Capabilities=0|0|0|0|0 0 0 0 0 0 0 0 0 0 0 0 0 0 0 0 0 0 0 0 0 0 0 0 0 0 0 0 0 0 0 0 0 0 0 0 0 0 0 0 0 0 0 0 0 0 0 0 0 0 0 0 0 0 0 0 0 0 0 0 0 0 0 0 0 0 0 0 0 0 0 0 0 0 0 0 0  , VHT Capabilities=0|281470681808895 , HE Capabilities=0|0|0|0|0) ns3::WifiMacTrailer ()
t 0.121332 /NodeList/0/DeviceList/1/$ns3::WifiNetDevice/Phy/State/Tx OfdmRate6Mbps ns3::WifiMacHeader (CTL_ACK Duration/ID=0us, RA=00:00:00:00:00:09) ns3::WifiMacTrailer ()
t 0.121437 /NodeList/0/DeviceList/1/$ns3::WifiNetDevice/Phy/State/Tx OfdmRate6Mbps ns3::WifiMacHeader (MGT_ASSOCIATION_RESPONSE ToDS=0, FromDS=0, MoreFrag=0, Retry=0, MoreData=0 Duration/ID=60us, DA=00:00:00:00:00:09, SA=00:00:00:00:00:0a, BSSID=00:00:00:00:00:0a, FragNumber=0, SeqNumber=3) ns3::MgtAssocResponseHeader (status code=success, aid=3, rates=[*6mbs 9mbs *12mbs 18mbs *24mbs 36mbs 48mbs 54mbs], ERP information=0|0|0, Extended Capabilities=0 , HT Capabilities=0|0|0|0|0 0 0 0 0 0 0 0 0 0 0 0 0 0 0 0 0 0 0 0 0 0 0 0 0 0 0 0 0 0 0 0 0 0 0 0 0 0 0 0 0 0 0 0 0 0 0 0 0 0 0 0 0 0 0 0 0 0 0 0 0 0 0 0 0 0 0 0 0 0 0 0 0 0 0 0 0  , HT Operation=0|0|0|0|0|0|0|0|0|0|0|0|0|0|0|0|0|0|0 0 0 0 0 0 0 0 0 0 0 0 0 0 0 0 0 0 0 0 0 0 0 0 0 0 0 0 0 0 0 0 0 0 0 0 0 0 0 0 0 0 0 0 0 0 0 0 0 0 0 0 0 0 0 0 0 0 0 0 0 0 0 0 0 0 0 0 0 0 0 0 0 0 0 0 0  , VHT Capabilities=0|281470681808895 , VHT Operation=0|0|0|0 , HE Capabilities=0|0|0|0|0 , HE Operation=0|0) ns3::WifiMacTrailer ()
r 0.121581 OfdmRate6Mbps/NodeList/0/DeviceList/1/$ns3::WifiNetDevice/Phy/State/RxOk ns3::WifiMacHeader (CTL_ACK Duration/ID=0us, RA=00:00:00:00:00:0a) ns3::WifiMacTrailer ()
t 0.13449 /NodeList/0/DeviceList/1/$ns3::WifiNetDevice/Phy/State/Tx OfdmRate6Mbps ns3::WifiMacHeader (MGT_BEACON ToDS=0, FromDS=0, MoreFrag=0, Retry=0, MoreData=0 Duration/ID=0us, DA=ff:ff:ff:ff:ff:ff, SA=00:00:00:00:00:0a, BSSID=00:00:00:00:00:0a, FragNumber=0, SeqNumber=4) ns3::MgtProbeResponseHeader (ssid=ns-3-ssid, rates=[*6mbs 9mbs *12mbs 18mbs *24mbs 36mbs 48mbs 54mbs], ERP information=0|0|0, Extended Capabilities=0 , HT Capabilities=0|0|0|0|0 0 0 0 0 0 0 0 0 0 0 0 0 0 0 0 0 0 0 0 0 0 0 0 0 0 0 0 0 0 0 0 0 0 0 0 0 0 0 0 0 0 0 0 0 0 0 0 0 0 0 0 0 0 0 0 0 0 0 0 0 0 0 0 0 0 0 0 0 0 0 0 0 0 0 0 0  , HT Operation=0|0|0|0|0|0|0|0|0|0|0|0|0|0|0|0|0|0|0 0 0 0 0 0 0 0 0 0 0 0 0 0 0 0 0 0 0 0 0 0 0 0 0 0 0 0 0 0 0 0 0 0 0 0 0 0 0 0 0 0 0 0 0 0 0 0 0 0 0 0 0 0 0 0 0 0 0 0 0 0 0 0 0 0 0 0 0 0 0 0 0 0 0 0 0  , VHT Capabilities=0|281470681808895 , VHT Operation=0|0|0|0 , HE Capabilities=0|0|0|0|0 , HE Operation=0|0) ns3::WifiMacTrailer ()
t 0.23689 /NodeList/0/DeviceList/1/$ns3::WifiNetDevice/Phy/State/Tx OfdmRate6Mbps ns3::WifiMacHeader (MGT_BEACON ToDS=0, FromDS=0, MoreFrag=0, Retry=0, MoreData=0 Duration/ID=0us, DA=ff:ff:ff:ff:ff:ff, SA=00:00:00:00:00:0a, BSSID=00:00:00:00:00:0a, FragNumber=0, SeqNumber=5) ns3::MgtProbeResponseHeader (ssid=ns-3-ssid, rates=[*6mbs 9mbs *12mbs 18mbs *24mbs 36mbs 48mbs 54mbs], ERP information=0|0|0, Extended Capabilities=0 , HT Capabilities=0|0|0|0|0 0 0 0 0 0 0 0 0 0 0 0 0 0 0 0 0 0 0 0 0 0 0 0 0 0 0 0 0 0 0 0 0 0 0 0 0 0 0 0 0 0 0 0 0 0 0 0 0 0 0 0 0 0 0 0 0 0 0 0 0 0 0 0 0 0 0 0 0 0 0 0 0 0 0 0 0  , HT Operation=0|0|0|0|0|0|0|0|0|0|0|0|0|0|0|0|0|0|0 0 0 0 0 0 0 0 0 0 0 0 0 0 0 0 0 0 0 0 0 0 0 0 0 0 0 0 0 0 0 0 0 0 0 0 0 0 0 0 0 0 0 0 0 0 0 0 0 0 0 0 0 0 0 0 0 0 0 0 0 0 0 0 0 0 0 0 0 0 0 0 0 0 0 0 0  , VHT Capabilities=0|281470681808895 , VHT Operation=0|0|0|0 , HE Capabilities=0|0|0|0|0 , HE Operation=0|0) ns3::WifiMacTrailer ()
t 0.33929 /NodeList/0/DeviceList/1/$ns3::WifiNetDevice/Phy/State/Tx OfdmRate6Mbps ns3::WifiMacHeader (MGT_BEACON ToDS=0, FromDS=0, MoreFrag=0, Retry=0, MoreData=0 Duration/ID=0us, DA=ff:ff:ff:ff:ff:ff, SA=00:00:00:00:00:0a, BSSID=00:00:00:00:00:0a, FragNumber=0, SeqNumber=6) ns3::MgtProbeResponseHeader (ssid=ns-3-ssid, rates=[*6mbs 9mbs *12mbs 18mbs *24mbs 36mbs 48mbs 54mbs], ERP information=0|0|0, Extended Capabilities=0 , HT Capabilities=0|0|0|0|0 0 0 0 0 0 0 0 0 0 0 0 0 0 0 0 0 0 0 0 0 0 0 0 0 0 0 0 0 0 0 0 0 0 0 0 0 0 0 0 0 0 0 0 0 0 0 0 0 0 0 0 0 0 0 0 0 0 0 0 0 0 0 0 0 0 0 0 0 0 0 0 0 0 0 0 0  , HT Operation=0|0|0|0|0|0|0|0|0|0|0|0|0|0|0|0|0|0|0 0 0 0 0 0 0 0 0 0 0 0 0 0 0 0 0 0 0 0 0 0 0 0 0 0 0 0 0 0 0 0 0 0 0 0 0 0 0 0 0 0 0 0 0 0 0 0 0 0 0 0 0 0 0 0 0 0 0 0 0 0 0 0 0 0 0 0 0 0 0 0 0 0 0 0 0  , VHT Capabilities=0|281470681808895 , VHT Operation=0|0|0|0 , HE Capabilities=0|0|0|0|0 , HE Operation=0|0) ns3::WifiMacTrailer ()
t 0.44169 /NodeList/0/DeviceList/1/$ns3::WifiNetDevice/Phy/State/Tx OfdmRate6Mbps ns3::WifiMacHeader (MGT_BEACON ToDS=0, FromDS=0, MoreFrag=0, Retry=0, MoreData=0 Duration/ID=0us, DA=ff:ff:ff:ff:ff:ff, SA=00:00:00:00:00:0a, BSSID=00:00:00:00:00:0a, FragNumber=0, SeqNumber=7) ns3::MgtProbeResponseHeader (ssid=ns-3-ssid, rates=[*6mbs 9mbs *12mbs 18mbs *24mbs 36mbs 48mbs 54mbs], ERP information=0|0|0, Extended Capabilities=0 , HT Capabilities=0|0|0|0|0 0 0 0 0 0 0 0 0 0 0 0 0 0 0 0 0 0 0 0 0 0 0 0 0 0 0 0 0 0 0 0 0 0 0 0 0 0 0 0 0 0 0 0 0 0 0 0 0 0 0 0 0 0 0 0 0 0 0 0 0 0 0 0 0 0 0 0 0 0 0 0 0 0 0 0 0  , HT Operation=0|0|0|0|0|0|0|0|0|0|0|0|0|0|0|0|0|0|0 0 0 0 0 0 0 0 0 0 0 0 0 0 0 0 0 0 0 0 0 0 0 0 0 0 0 0 0 0 0 0 0 0 0 0 0 0 0 0 0 0 0 0 0 0 0 0 0 0 0 0 0 0 0 0 0 0 0 0 0 0 0 0 0 0 0 0 0 0 0 0 0 0 0 0 0  , VHT Capabilities=0|281470681808895 , VHT Operation=0|0|0|0 , HE Capabilities=0|0|0|0|0 , HE Operation=0|0) ns3::WifiMacTrailer ()
t 0.54409 /NodeList/0/DeviceList/1/$ns3::WifiNetDevice/Phy/State/Tx OfdmRate6Mbps ns3::WifiMacHeader (MGT_BEACON ToDS=0, FromDS=0, MoreFrag=0, Retry=0, MoreData=0 Duration/ID=0us, DA=ff:ff:ff:ff:ff:ff, SA=00:00:00:00:00:0a, BSSID=00:00:00:00:00:0a, FragNumber=0, SeqNumber=8) ns3::MgtProbeResponseHeader (ssid=ns-3-ssid, rates=[*6mbs 9mbs *12mbs 18mbs *24mbs 36mbs 48mbs 54mbs], ERP information=0|0|0, Extended Capabilities=0 , HT Capabilities=0|0|0|0|0 0 0 0 0 0 0 0 0 0 0 0 0 0 0 0 0 0 0 0 0 0 0 0 0 0 0 0 0 0 0 0 0 0 0 0 0 0 0 0 0 0 0 0 0 0 0 0 0 0 0 0 0 0 0 0 0 0 0 0 0 0 0 0 0 0 0 0 0 0 0 0 0 0 0 0 0  , HT Operation=0|0|0|0|0|0|0|0|0|0|0|0|0|0|0|0|0|0|0 0 0 0 0 0 0 0 0 0 0 0 0 0 0 0 0 0 0 0 0 0 0 0 0 0 0 0 0 0 0 0 0 0 0 0 0 0 0 0 0 0 0 0 0 0 0 0 0 0 0 0 0 0 0 0 0 0 0 0 0 0 0 0 0 0 0 0 0 0 0 0 0 0 0 0 0  , VHT Capabilities=0|281470681808895 , VHT Operation=0|0|0|0 , HE Capabilities=0|0|0|0|0 , HE Operation=0|0) ns3::WifiMacTrailer ()
t 0.64649 /NodeList/0/DeviceList/1/$ns3::WifiNetDevice/Phy/State/Tx OfdmRate6Mbps ns3::WifiMacHeader (MGT_BEACON ToDS=0, FromDS=0, MoreFrag=0, Retry=0, MoreData=0 Duration/ID=0us, DA=ff:ff:ff:ff:ff:ff, SA=00:00:00:00:00:0a, BSSID=00:00:00:00:00:0a, FragNumber=0, SeqNumber=9) ns3::MgtProbeResponseHeader (ssid=ns-3-ssid, rates=[*6mbs 9mbs *12mbs 18mbs *24mbs 36mbs 48mbs 54mbs], ERP information=0|0|0, Extended Capabilities=0 , HT Capabilities=0|0|0|0|0 0 0 0 0 0 0 0 0 0 0 0 0 0 0 0 0 0 0 0 0 0 0 0 0 0 0 0 0 0 0 0 0 0 0 0 0 0 0 0 0 0 0 0 0 0 0 0 0 0 0 0 0 0 0 0 0 0 0 0 0 0 0 0 0 0 0 0 0 0 0 0 0 0 0 0 0  , HT Operation=0|0|0|0|0|0|0|0|0|0|0|0|0|0|0|0|0|0|0 0 0 0 0 0 0 0 0 0 0 0 0 0 0 0 0 0 0 0 0 0 0 0 0 0 0 0 0 0 0 0 0 0 0 0 0 0 0 0 0 0 0 0 0 0 0 0 0 0 0 0 0 0 0 0 0 0 0 0 0 0 0 0 0 0 0 0 0 0 0 0 0 0 0 0 0  , VHT Capabilities=0|281470681808895 , VHT Operation=0|0|0|0 , HE Capabilities=0|0|0|0|0 , HE Operation=0|0) ns3::WifiMacTrailer ()
t 0.74889 /NodeList/0/DeviceList/1/$ns3::WifiNetDevice/Phy/State/Tx OfdmRate6Mbps ns3::WifiMacHeader (MGT_BEACON ToDS=0, FromDS=0, MoreFrag=0, Retry=0, MoreData=0 Duration/ID=0us, DA=ff:ff:ff:ff:ff:ff, SA=00:00:00:00:00:0a, BSSID=00:00:00:00:00:0a, FragNumber=0, SeqNumber=10) ns3::MgtProbeResponseHeader (ssid=ns-3-ssid, rates=[*6mbs 9mbs *12mbs 18mbs *24mbs 36mbs 48mbs 54mbs], ERP information=0|0|0, Extended Capabilities=0 , HT Capabilities=0|0|0|0|0 0 0 0 0 0 0 0 0 0 0 0 0 0 0 0 0 0 0 0 0 0 0 0 0 0 0 0 0 0 0 0 0 0 0 0 0 0 0 0 0 0 0 0 0 0 0 0 0 0 0 0 0 0 0 0 0 0 0 0 0 0 0 0 0 0 0 0 0 0 0 0 0 0 0 0 0  , HT Operation=0|0|0|0|0|0|0|0|0|0|0|0|0|0|0|0|0|0|0 0 0 0 0 0 0 0 0 0 0 0 0 0 0 0 0 0 0 0 0 0 0 0 0 0 0 0 0 0 0 0 0 0 0 0 0 0 0 0 0 0 0 0 0 0 0 0 0 0 0 0 0 0 0 0 0 0 0 0 0 0 0 0 0 0 0 0 0 0 0 0 0 0 0 0 0  , VHT Capabilities=0|281470681808895 , VHT Operation=0|0|0|0 , HE Capabilities=0|0|0|0|0 , HE Operation=0|0) ns3::WifiMacTrailer ()
t 0.85129 /NodeList/0/DeviceList/1/$ns3::WifiNetDevice/Phy/State/Tx OfdmRate6Mbps ns3::WifiMacHeader (MGT_BEACON ToDS=0, FromDS=0, MoreFrag=0, Retry=0, MoreData=0 Duration/ID=0us, DA=ff:ff:ff:ff:ff:ff, SA=00:00:00:00:00:0a, BSSID=00:00:00:00:00:0a, FragNumber=0, SeqNumber=11) ns3::MgtProbeResponseHeader (ssid=ns-3-ssid, rates=[*6mbs 9mbs *12mbs 18mbs *24mbs 36mbs 48mbs 54mbs], ERP information=0|0|0, Extended Capabilities=0 , HT Capabilities=0|0|0|0|0 0 0 0 0 0 0 0 0 0 0 0 0 0 0 0 0 0 0 0 0 0 0 0 0 0 0 0 0 0 0 0 0 0 0 0 0 0 0 0 0 0 0 0 0 0 0 0 0 0 0 0 0 0 0 0 0 0 0 0 0 0 0 0 0 0 0 0 0 0 0 0 0 0 0 0 0  , HT Operation=0|0|0|0|0|0|0|0|0|0|0|0|0|0|0|0|0|0|0 0 0 0 0 0 0 0 0 0 0 0 0 0 0 0 0 0 0 0 0 0 0 0 0 0 0 0 0 0 0 0 0 0 0 0 0 0 0 0 0 0 0 0 0 0 0 0 0 0 0 0 0 0 0 0 0 0 0 0 0 0 0 0 0 0 0 0 0 0 0 0 0 0 0 0 0  , VHT Capabilities=0|281470681808895 , VHT Operation=0|0|0|0 , HE Capabilities=0|0|0|0|0 , HE Operation=0|0) ns3::WifiMacTrailer ()
t 0.95369 /NodeList/0/DeviceList/1/$ns3::WifiNetDevice/Phy/State/Tx OfdmRate6Mbps ns3::WifiMacHeader (MGT_BEACON ToDS=0, FromDS=0, MoreFrag=0, Retry=0, MoreData=0 Duration/ID=0us, DA=ff:ff:ff:ff:ff:ff, SA=00:00:00:00:00:0a, BSSID=00:00:00:00:00:0a, FragNumber=0, SeqNumber=12) ns3::MgtProbeResponseHeader (ssid=ns-3-ssid, rates=[*6mbs 9mbs *12mbs 18mbs *24mbs 36mbs 48mbs 54mbs], ERP information=0|0|0, Extended Capabilities=0 , HT Capabilities=0|0|0|0|0 0 0 0 0 0 0 0 0 0 0 0 0 0 0 0 0 0 0 0 0 0 0 0 0 0 0 0 0 0 0 0 0 0 0 0 0 0 0 0 0 0 0 0 0 0 0 0 0 0 0 0 0 0 0 0 0 0 0 0 0 0 0 0 0 0 0 0 0 0 0 0 0 0 0 0 0  , HT Operation=0|0|0|0|0|0|0|0|0|0|0|0|0|0|0|0|0|0|0 0 0 0 0 0 0 0 0 0 0 0 0 0 0 0 0 0 0 0 0 0 0 0 0 0 0 0 0 0 0 0 0 0 0 0 0 0 0 0 0 0 0 0 0 0 0 0 0 0 0 0 0 0 0 0 0 0 0 0 0 0 0 0 0 0 0 0 0 0 0 0 0 0 0 0 0  , VHT Capabilities=0|281470681808895 , VHT Operation=0|0|0|0 , HE Capabilities=0|0|0|0|0 , HE Operation=0|0) ns3::WifiMacTrailer ()
t 1.05609 /NodeList/0/DeviceList/1/$ns3::WifiNetDevice/Phy/State/Tx OfdmRate6Mbps ns3::WifiMacHeader (MGT_BEACON ToDS=0, FromDS=0, MoreFrag=0, Retry=0, MoreData=0 Duration/ID=0us, DA=ff:ff:ff:ff:ff:ff, SA=00:00:00:00:00:0a, BSSID=00:00:00:00:00:0a, FragNumber=0, SeqNumber=13) ns3::MgtProbeResponseHeader (ssid=ns-3-ssid, rates=[*6mbs 9mbs *12mbs 18mbs *24mbs 36mbs 48mbs 54mbs], ERP information=0|0|0, Extended Capabilities=0 , HT Capabilities=0|0|0|0|0 0 0 0 0 0 0 0 0 0 0 0 0 0 0 0 0 0 0 0 0 0 0 0 0 0 0 0 0 0 0 0 0 0 0 0 0 0 0 0 0 0 0 0 0 0 0 0 0 0 0 0 0 0 0 0 0 0 0 0 0 0 0 0 0 0 0 0 0 0 0 0 0 0 0 0 0  , HT Operation=0|0|0|0|0|0|0|0|0|0|0|0|0|0|0|0|0|0|0 0 0 0 0 0 0 0 0 0 0 0 0 0 0 0 0 0 0 0 0 0 0 0 0 0 0 0 0 0 0 0 0 0 0 0 0 0 0 0 0 0 0 0 0 0 0 0 0 0 0 0 0 0 0 0 0 0 0 0 0 0 0 0 0 0 0 0 0 0 0 0 0 0 0 0 0  , VHT Capabilities=0|281470681808895 , VHT Operation=0|0|0|0 , HE Capabilities=0|0|0|0|0 , HE Operation=0|0) ns3::WifiMacTrailer ()
t 1.15849 /NodeList/0/DeviceList/1/$ns3::WifiNetDevice/Phy/State/Tx OfdmRate6Mbps ns3::WifiMacHeader (MGT_BEACON ToDS=0, FromDS=0, MoreFrag=0, Retry=0, MoreData=0 Duration/ID=0us, DA=ff:ff:ff:ff:ff:ff, SA=00:00:00:00:00:0a, BSSID=00:00:00:00:00:0a, FragNumber=0, SeqNumber=14) ns3::MgtProbeResponseHeader (ssid=ns-3-ssid, rates=[*6mbs 9mbs *12mbs 18mbs *24mbs 36mbs 48mbs 54mbs], ERP information=0|0|0, Extended Capabilities=0 , HT Capabilities=0|0|0|0|0 0 0 0 0 0 0 0 0 0 0 0 0 0 0 0 0 0 0 0 0 0 0 0 0 0 0 0 0 0 0 0 0 0 0 0 0 0 0 0 0 0 0 0 0 0 0 0 0 0 0 0 0 0 0 0 0 0 0 0 0 0 0 0 0 0 0 0 0 0 0 0 0 0 0 0 0  , HT Operation=0|0|0|0|0|0|0|0|0|0|0|0|0|0|0|0|0|0|0 0 0 0 0 0 0 0 0 0 0 0 0 0 0 0 0 0 0 0 0 0 0 0 0 0 0 0 0 0 0 0 0 0 0 0 0 0 0 0 0 0 0 0 0 0 0 0 0 0 0 0 0 0 0 0 0 0 0 0 0 0 0 0 0 0 0 0 0 0 0 0 0 0 0 0 0  , VHT Capabilities=0|281470681808895 , VHT Operation=0|0|0|0 , HE Capabilities=0|0|0|0|0 , HE Operation=0|0) ns3::WifiMacTrailer ()
t 1.26089 /NodeList/0/DeviceList/1/$ns3::WifiNetDevice/Phy/State/Tx OfdmRate6Mbps ns3::WifiMacHeader (MGT_BEACON ToDS=0, FromDS=0, MoreFrag=0, Retry=0, MoreData=0 Duration/ID=0us, DA=ff:ff:ff:ff:ff:ff, SA=00:00:00:00:00:0a, BSSID=00:00:00:00:00:0a, FragNumber=0, SeqNumber=15) ns3::MgtProbeResponseHeader (ssid=ns-3-ssid, rates=[*6mbs 9mbs *12mbs 18mbs *24mbs 36mbs 48mbs 54mbs], ERP information=0|0|0, Extended Capabilities=0 , HT Capabilities=0|0|0|0|0 0 0 0 0 0 0 0 0 0 0 0 0 0 0 0 0 0 0 0 0 0 0 0 0 0 0 0 0 0 0 0 0 0 0 0 0 0 0 0 0 0 0 0 0 0 0 0 0 0 0 0 0 0 0 0 0 0 0 0 0 0 0 0 0 0 0 0 0 0 0 0 0 0 0 0 0  , HT Operation=0|0|0|0|0|0|0|0|0|0|0|0|0|0|0|0|0|0|0 0 0 0 0 0 0 0 0 0 0 0 0 0 0 0 0 0 0 0 0 0 0 0 0 0 0 0 0 0 0 0 0 0 0 0 0 0 0 0 0 0 0 0 0 0 0 0 0 0 0 0 0 0 0 0 0 0 0 0 0 0 0 0 0 0 0 0 0 0 0 0 0 0 0 0 0  , VHT Capabilities=0|281470681808895 , VHT Operation=0|0|0|0 , HE Capabilities=0|0|0|0|0 , HE Operation=0|0) ns3::WifiMacTrailer ()
t 1.36329 /NodeList/0/DeviceList/1/$ns3::WifiNetDevice/Phy/State/Tx OfdmRate6Mbps ns3::WifiMacHeader (MGT_BEACON ToDS=0, FromDS=0, MoreFrag=0, Retry=0, MoreData=0 Duration/ID=0us, DA=ff:ff:ff:ff:ff:ff, SA=00:00:00:00:00:0a, BSSID=00:00:00:00:00:0a, FragNumber=0, SeqNumber=16) ns3::MgtProbeResponseHeader (ssid=ns-3-ssid, rates=[*6mbs 9mbs *12mbs 18mbs *24mbs 36mbs 48mbs 54mbs], ERP information=0|0|0, Extended Capabilities=0 , HT Capabilities=0|0|0|0|0 0 0 0 0 0 0 0 0 0 0 0 0 0 0 0 0 0 0 0 0 0 0 0 0 0 0 0 0 0 0 0 0 0 0 0 0 0 0 0 0 0 0 0 0 0 0 0 0 0 0 0 0 0 0 0 0 0 0 0 0 0 0 0 0 0 0 0 0 0 0 0 0 0 0 0 0  , HT Operation=0|0|0|0|0|0|0|0|0|0|0|0|0|0|0|0|0|0|0 0 0 0 0 0 0 0 0 0 0 0 0 0 0 0 0 0 0 0 0 0 0 0 0 0 0 0 0 0 0 0 0 0 0 0 0 0 0 0 0 0 0 0 0 0 0 0 0 0 0 0 0 0 0 0 0 0 0 0 0 0 0 0 0 0 0 0 0 0 0 0 0 0 0 0 0  , VHT Capabilities=0|281470681808895 , VHT Operation=0|0|0|0 , HE Capabilities=0|0|0|0|0 , HE Operation=0|0) ns3::WifiMacTrailer ()
t 1.46569 /NodeList/0/DeviceList/1/$ns3::WifiNetDevice/Phy/State/Tx OfdmRate6Mbps ns3::WifiMacHeader (MGT_BEACON ToDS=0, FromDS=0, MoreFrag=0, Retry=0, MoreData=0 Duration/ID=0us, DA=ff:ff:ff:ff:ff:ff, SA=00:00:00:00:00:0a, BSSID=00:00:00:00:00:0a, FragNumber=0, SeqNumber=17) ns3::MgtProbeResponseHeader (ssid=ns-3-ssid, rates=[*6mbs 9mbs *12mbs 18mbs *24mbs 36mbs 48mbs 54mbs], ERP information=0|0|0, Extended Capabilities=0 , HT Capabilities=0|0|0|0|0 0 0 0 0 0 0 0 0 0 0 0 0 0 0 0 0 0 0 0 0 0 0 0 0 0 0 0 0 0 0 0 0 0 0 0 0 0 0 0 0 0 0 0 0 0 0 0 0 0 0 0 0 0 0 0 0 0 0 0 0 0 0 0 0 0 0 0 0 0 0 0 0 0 0 0 0  , HT Operation=0|0|0|0|0|0|0|0|0|0|0|0|0|0|0|0|0|0|0 0 0 0 0 0 0 0 0 0 0 0 0 0 0 0 0 0 0 0 0 0 0 0 0 0 0 0 0 0 0 0 0 0 0 0 0 0 0 0 0 0 0 0 0 0 0 0 0 0 0 0 0 0 0 0 0 0 0 0 0 0 0 0 0 0 0 0 0 0 0 0 0 0 0 0 0  , VHT Capabilities=0|281470681808895 , VHT Operation=0|0|0|0 , HE Capabilities=0|0|0|0|0 , HE Operation=0|0) ns3::WifiMacTrailer ()
t 1.56809 /NodeList/0/DeviceList/1/$ns3::WifiNetDevice/Phy/State/Tx OfdmRate6Mbps ns3::WifiMacHeader (MGT_BEACON ToDS=0, FromDS=0, MoreFrag=0, Retry=0, MoreData=0 Duration/ID=0us, DA=ff:ff:ff:ff:ff:ff, SA=00:00:00:00:00:0a, BSSID=00:00:00:00:00:0a, FragNumber=0, SeqNumber=18) ns3::MgtProbeResponseHeader (ssid=ns-3-ssid, rates=[*6mbs 9mbs *12mbs 18mbs *24mbs 36mbs 48mbs 54mbs], ERP information=0|0|0, Extended Capabilities=0 , HT Capabilities=0|0|0|0|0 0 0 0 0 0 0 0 0 0 0 0 0 0 0 0 0 0 0 0 0 0 0 0 0 0 0 0 0 0 0 0 0 0 0 0 0 0 0 0 0 0 0 0 0 0 0 0 0 0 0 0 0 0 0 0 0 0 0 0 0 0 0 0 0 0 0 0 0 0 0 0 0 0 0 0 0  , HT Operation=0|0|0|0|0|0|0|0|0|0|0|0|0|0|0|0|0|0|0 0 0 0 0 0 0 0 0 0 0 0 0 0 0 0 0 0 0 0 0 0 0 0 0 0 0 0 0 0 0 0 0 0 0 0 0 0 0 0 0 0 0 0 0 0 0 0 0 0 0 0 0 0 0 0 0 0 0 0 0 0 0 0 0 0 0 0 0 0 0 0 0 0 0 0 0  , VHT Capabilities=0|281470681808895 , VHT Operation=0|0|0|0 , HE Capabilities=0|0|0|0|0 , HE Operation=0|0) ns3::WifiMacTrailer ()
t 1.67049 /NodeList/0/DeviceList/1/$ns3::WifiNetDevice/Phy/State/Tx OfdmRate6Mbps ns3::WifiMacHeader (MGT_BEACON ToDS=0, FromDS=0, MoreFrag=0, Retry=0, MoreData=0 Duration/ID=0us, DA=ff:ff:ff:ff:ff:ff, SA=00:00:00:00:00:0a, BSSID=00:00:00:00:00:0a, FragNumber=0, SeqNumber=19) ns3::MgtProbeResponseHeader (ssid=ns-3-ssid, rates=[*6mbs 9mbs *12mbs 18mbs *24mbs 36mbs 48mbs 54mbs], ERP information=0|0|0, Extended Capabilities=0 , HT Capabilities=0|0|0|0|0 0 0 0 0 0 0 0 0 0 0 0 0 0 0 0 0 0 0 0 0 0 0 0 0 0 0 0 0 0 0 0 0 0 0 0 0 0 0 0 0 0 0 0 0 0 0 0 0 0 0 0 0 0 0 0 0 0 0 0 0 0 0 0 0 0 0 0 0 0 0 0 0 0 0 0 0  , HT Operation=0|0|0|0|0|0|0|0|0|0|0|0|0|0|0|0|0|0|0 0 0 0 0 0 0 0 0 0 0 0 0 0 0 0 0 0 0 0 0 0 0 0 0 0 0 0 0 0 0 0 0 0 0 0 0 0 0 0 0 0 0 0 0 0 0 0 0 0 0 0 0 0 0 0 0 0 0 0 0 0 0 0 0 0 0 0 0 0 0 0 0 0 0 0 0  , VHT Capabilities=0|281470681808895 , VHT Operation=0|0|0|0 , HE Capabilities=0|0|0|0|0 , HE Operation=0|0) ns3::WifiMacTrailer ()
t 1.77289 /NodeList/0/DeviceList/1/$ns3::WifiNetDevice/Phy/State/Tx OfdmRate6Mbps ns3::WifiMacHeader (MGT_BEACON ToDS=0, FromDS=0, MoreFrag=0, Retry=0, MoreData=0 Duration/ID=0us, DA=ff:ff:ff:ff:ff:ff, SA=00:00:00:00:00:0a, BSSID=00:00:00:00:00:0a, FragNumber=0, SeqNumber=20) ns3::MgtProbeResponseHeader (ssid=ns-3-ssid, rates=[*6mbs 9mbs *12mbs 18mbs *24mbs 36mbs 48mbs 54mbs], ERP information=0|0|0, Extended Capabilities=0 , HT Capabilities=0|0|0|0|0 0 0 0 0 0 0 0 0 0 0 0 0 0 0 0 0 0 0 0 0 0 0 0 0 0 0 0 0 0 0 0 0 0 0 0 0 0 0 0 0 0 0 0 0 0 0 0 0 0 0 0 0 0 0 0 0 0 0 0 0 0 0 0 0 0 0 0 0 0 0 0 0 0 0 0 0  , HT Operation=0|0|0|0|0|0|0|0|0|0|0|0|0|0|0|0|0|0|0 0 0 0 0 0 0 0 0 0 0 0 0 0 0 0 0 0 0 0 0 0 0 0 0 0 0 0 0 0 0 0 0 0 0 0 0 0 0 0 0 0 0 0 0 0 0 0 0 0 0 0 0 0 0 0 0 0 0 0 0 0 0 0 0 0 0 0 0 0 0 0 0 0 0 0 0  , VHT Capabilities=0|281470681808895 , VHT Operation=0|0|0|0 , HE Capabilities=0|0|0|0|0 , HE Operation=0|0) ns3::WifiMacTrailer ()
t 1.87529 /NodeList/0/DeviceList/1/$ns3::WifiNetDevice/Phy/State/Tx OfdmRate6Mbps ns3::WifiMacHeader (MGT_BEACON ToDS=0, FromDS=0, MoreFrag=0, Retry=0, MoreData=0 Duration/ID=0us, DA=ff:ff:ff:ff:ff:ff, SA=00:00:00:00:00:0a, BSSID=00:00:00:00:00:0a, FragNumber=0, SeqNumber=21) ns3::MgtProbeResponseHeader (ssid=ns-3-ssid, rates=[*6mbs 9mbs *12mbs 18mbs *24mbs 36mbs 48mbs 54mbs], ERP information=0|0|0, Extended Capabilities=0 , HT Capabilities=0|0|0|0|0 0 0 0 0 0 0 0 0 0 0 0 0 0 0 0 0 0 0 0 0 0 0 0 0 0 0 0 0 0 0 0 0 0 0 0 0 0 0 0 0 0 0 0 0 0 0 0 0 0 0 0 0 0 0 0 0 0 0 0 0 0 0 0 0 0 0 0 0 0 0 0 0 0 0 0 0  , HT Operation=0|0|0|0|0|0|0|0|0|0|0|0|0|0|0|0|0|0|0 0 0 0 0 0 0 0 0 0 0 0 0 0 0 0 0 0 0 0 0 0 0 0 0 0 0 0 0 0 0 0 0 0 0 0 0 0 0 0 0 0 0 0 0 0 0 0 0 0 0 0 0 0 0 0 0 0 0 0 0 0 0 0 0 0 0 0 0 0 0 0 0 0 0 0 0  , VHT Capabilities=0|281470681808895 , VHT Operation=0|0|0|0 , HE Capabilities=0|0|0|0|0 , HE Operation=0|0) ns3::WifiMacTrailer ()
t 1.97769 /NodeList/0/DeviceList/1/$ns3::WifiNetDevice/Phy/State/Tx OfdmRate6Mbps ns3::WifiMacHeader (MGT_BEACON ToDS=0, FromDS=0, MoreFrag=0, Retry=0, MoreData=0 Duration/ID=0us, DA=ff:ff:ff:ff:ff:ff, SA=00:00:00:00:00:0a, BSSID=00:00:00:00:00:0a, FragNumber=0, SeqNumber=22) ns3::MgtProbeResponseHeader (ssid=ns-3-ssid, rates=[*6mbs 9mbs *12mbs 18mbs *24mbs 36mbs 48mbs 54mbs], ERP information=0|0|0, Extended Capabilities=0 , HT Capabilities=0|0|0|0|0 0 0 0 0 0 0 0 0 0 0 0 0 0 0 0 0 0 0 0 0 0 0 0 0 0 0 0 0 0 0 0 0 0 0 0 0 0 0 0 0 0 0 0 0 0 0 0 0 0 0 0 0 0 0 0 0 0 0 0 0 0 0 0 0 0 0 0 0 0 0 0 0 0 0 0 0  , HT Operation=0|0|0|0|0|0|0|0|0|0|0|0|0|0|0|0|0|0|0 0 0 0 0 0 0 0 0 0 0 0 0 0 0 0 0 0 0 0 0 0 0 0 0 0 0 0 0 0 0 0 0 0 0 0 0 0 0 0 0 0 0 0 0 0 0 0 0 0 0 0 0 0 0 0 0 0 0 0 0 0 0 0 0 0 0 0 0 0 0 0 0 0 0 0 0  , VHT Capabilities=0|281470681808895 , VHT Operation=0|0|0|0 , HE Capabilities=0|0|0|0|0 , HE Operation=0|0) ns3::WifiMacTrailer ()
r 2.00611 OfdmRate6Mbps/NodeList/0/DeviceList/1/$ns3::WifiNetDevice/Phy/State/RxOk ns3::WifiMacHeader (DATA ToDS=1, FromDS=0, MoreFrag=0, Retry=0, MoreData=0 Duration/ID=60us, DA=ff:ff:ff:ff:ff:ff, SA=00:00:00:00:00:09, BSSID=00:00:00:00:00:0a, FragNumber=0, SeqNumber=1) ns3::LlcSnapHeader (type 0x806) ns3::ArpHeader (request source mac: 00-06-00:00:00:00:00:09 source ipv4: 10.1.3.3 dest ipv4: 10.1.3.4) ns3::WifiMacTrailer ()
t 2.00613 /NodeList/0/DeviceList/1/$ns3::WifiNetDevice/Phy/State/Tx OfdmRate6Mbps ns3::WifiMacHeader (CTL_ACK Duration/ID=0us, RA=00:00:00:00:00:09) ns3::WifiMacTrailer ()
t 2.00623 /NodeList/0/DeviceList/1/$ns3::WifiNetDevice/Phy/State/Tx OfdmRate6Mbps ns3::WifiMacHeader (DATA ToDS=0, FromDS=1, MoreFrag=0, Retry=0, MoreData=0 Duration/ID=0us, DA=ff:ff:ff:ff:ff:ff, SA=00:00:00:00:00:09, BSSID=00:00:00:00:00:0a, FragNumber=0, SeqNumber=23) ns3::LlcSnapHeader (type 0x806) ns3::ArpHeader (request source mac: 00-06-00:00:00:00:00:09 source ipv4: 10.1.3.3 dest ipv4: 10.1.3.4) ns3::WifiMacTrailer ()
t 2.00643 /NodeList/0/DeviceList/1/$ns3::WifiNetDevice/Phy/State/Tx OfdmRate6Mbps ns3::WifiMacHeader (DATA ToDS=0, FromDS=1, MoreFrag=0, Retry=0, MoreData=0 Duration/ID=60us, DA=00:00:00:00:00:09, SA=00:00:00:00:00:0a, BSSID=00:00:00:00:00:0a, FragNumber=0, SeqNumber=24) ns3::LlcSnapHeader (type 0x806) ns3::ArpHeader (reply source mac: 00-06-00:00:00:00:00:0a source ipv4: 10.1.3.4 dest mac: 00-06-00:00:00:00:00:09 dest ipv4: 10.1.3.3) ns3::WifiMacTrailer ()
r 2.00661 OfdmRate6Mbps/NodeList/0/DeviceList/1/$ns3::WifiNetDevice/Phy/State/RxOk ns3::WifiMacHeader (CTL_ACK Duration/ID=0us, RA=00:00:00:00:00:0a) ns3::WifiMacTrailer ()
r 2.00815 OfdmRate6Mbps/NodeList/0/DeviceList/1/$ns3::WifiNetDevice/Phy/State/RxOk ns3::WifiMacHeader (DATA ToDS=1, FromDS=0, MoreFrag=0, Retry=0, MoreData=0 Duration/ID=60us, DA=00:00:00:00:00:0a, SA=00:00:00:00:00:09, BSSID=00:00:00:00:00:0a, FragNumber=0, SeqNumber=2) ns3::LlcSnapHeader (type 0x800) ns3::Ipv4Header (tos 0x0 DSCP Default ECN Not-ECT ttl 64 id 0 protocol 17 offset (bytes) 0 flags [none] length: 1052 10.1.3.3 > 10.1.2.4) ns3::UdpHeader (length: 1032 49153 > 9) Payload (size=1024) ns3::WifiMacTrailer ()
t 2.00817 /NodeList/0/DeviceList/1/$ns3::WifiNetDevice/Phy/State/Tx OfdmRate6Mbps ns3::WifiMacHeader (CTL_ACK Duration/ID=0us, RA=00:00:00:00:00:09) ns3::WifiMacTrailer ()
t 2.03176 /NodeList/0/DeviceList/1/$ns3::WifiNetDevice/Phy/State/Tx OfdmRate6Mbps ns3::WifiMacHeader (DATA ToDS=0, FromDS=1, MoreFrag=0, Retry=0, MoreData=0 Duration/ID=0us, DA=ff:ff:ff:ff:ff:ff, SA=00:00:00:00:00:0a, BSSID=00:00:00:00:00:0a, FragNumber=0, SeqNumber=25) ns3::LlcSnapHeader (type 0x806) ns3::ArpHeader (request source mac: 00-06-00:00:00:00:00:0a source ipv4: 10.1.3.4 dest ipv4: 10.1.3.3) ns3::WifiMacTrailer ()
r 2.03202 OfdmRate6Mbps/NodeList/0/DeviceList/1/$ns3::WifiNetDevice/Phy/State/RxOk ns3::WifiMacHeader (DATA ToDS=1, FromDS=0, MoreFrag=0, Retry=0, MoreData=0 Duration/ID=60us, DA=00:00:00:00:00:0a, SA=00:00:00:00:00:09, BSSID=00:00:00:00:00:0a, FragNumber=0, SeqNumber=3) ns3::LlcSnapHeader (type 0x806) ns3::ArpHeader (reply source mac: 00-06-00:00:00:00:00:09 source ipv4: 10.1.3.3 dest mac: 00-06-00:00:00:00:00:0a dest ipv4: 10.1.3.4) ns3::WifiMacTrailer ()
t 2.03203 /NodeList/0/DeviceList/1/$ns3::WifiNetDevice/Phy/State/Tx OfdmRate6Mbps ns3::WifiMacHeader (CTL_ACK Duration/ID=0us, RA=00:00:00:00:00:09) ns3::WifiMacTrailer ()
t 2.03217 /NodeList/0/DeviceList/1/$ns3::WifiNetDevice/Phy/State/Tx OfdmRate6Mbps ns3::WifiMacHeader (DATA ToDS=0, FromDS=1, MoreFrag=0, Retry=0, MoreData=0 Duration/ID=60us, DA=00:00:00:00:00:09, SA=00:00:00:00:00:0a, BSSID=00:00:00:00:00:0a, FragNumber=0, SeqNumber=26) ns3::LlcSnapHeader (type 0x800) ns3::Ipv4Header (tos 0x0 DSCP Default ECN Not-ECT ttl 62 id 0 protocol 17 offset (bytes) 0 flags [none] length: 1052 10.1.2.4 > 10.1.3.3) ns3::UdpHeader (length: 1032 9 > 49153) Payload (size=1024) ns3::WifiMacTrailer ()
r 2.0337 OfdmRate6Mbps/NodeList/0/DeviceList/1/$ns3::WifiNetDevice/Phy/State/RxOk ns3::WifiMacHeader (CTL_ACK Duration/ID=0us, RA=00:00:00:00:00:0a) ns3::WifiMacTrailer ()
t 2.08009 /NodeList/0/DeviceList/1/$ns3::WifiNetDevice/Phy/State/Tx OfdmRate6Mbps ns3::WifiMacHeader (MGT_BEACON ToDS=0, FromDS=0, MoreFrag=0, Retry=0, MoreData=0 Duration/ID=0us, DA=ff:ff:ff:ff:ff:ff, SA=00:00:00:00:00:0a, BSSID=00:00:00:00:00:0a, FragNumber=0, SeqNumber=27) ns3::MgtProbeResponseHeader (ssid=ns-3-ssid, rates=[*6mbs 9mbs *12mbs 18mbs *24mbs 36mbs 48mbs 54mbs], ERP information=0|0|0, Extended Capabilities=0 , HT Capabilities=0|0|0|0|0 0 0 0 0 0 0 0 0 0 0 0 0 0 0 0 0 0 0 0 0 0 0 0 0 0 0 0 0 0 0 0 0 0 0 0 0 0 0 0 0 0 0 0 0 0 0 0 0 0 0 0 0 0 0 0 0 0 0 0 0 0 0 0 0 0 0 0 0 0 0 0 0 0 0 0 0  , HT Operation=0|0|0|0|0|0|0|0|0|0|0|0|0|0|0|0|0|0|0 0 0 0 0 0 0 0 0 0 0 0 0 0 0 0 0 0 0 0 0 0 0 0 0 0 0 0 0 0 0 0 0 0 0 0 0 0 0 0 0 0 0 0 0 0 0 0 0 0 0 0 0 0 0 0 0 0 0 0 0 0 0 0 0 0 0 0 0 0 0 0 0 0 0 0 0  , VHT Capabilities=0|281470681808895 , VHT Operation=0|0|0|0 , HE Capabilities=0|0|0|0|0 , HE Operation=0|0) ns3::WifiMacTrailer ()